7
Structures with energy below -347700 kj/mol and CC distance >= 3
C	1.350508	0.7790238	0.6630868	
H	1.825709	1.257877	-0.1891705	
H	1.848891	1.089646	1.577782	
H	0.3037303	1.06899	0.7044747	
H	1.423537	-0.3005121	0.5594173	
C	-1.832366	1.29379	-2.492349	
N	-1.370433	2.318893	-2.58271	
7

C	-3.450782	3.334512	4.11465	
H	-4.447155	3.74139	4.341071	
H	-4.552629	0.1180568	4.181421	
H	-3.188349	3.212496	3.069427	
H	-2.697286	3.171041	4.9088	
C	-4.440723	-0.9704312	3.946023	
N	-4.649342	-2.117911	3.776332	
7

C	-3.43164	3.370286	4.108705	
H	-4.420883	3.80631	4.316234	
H	-4.549191	0.156212	4.148414	
H	-3.158278	3.281547	3.058812	
H	-2.670071	3.246292	4.898624	
C	-4.441625	-0.9759468	3.926867	
N	-4.654053	-2.113226	3.784102	
7

C	-3.413	3.405608	4.103075	
H	-4.38941	3.867538	4.293662	
H	-4.537801	0.1664609	4.109338	
H	-3.12685	3.348344	3.049096	
H	-2.649138	3.32125	4.883644	
C	-4.442337	-0.978765	3.906263	
N	-4.657915	-2.106607	3.791891	
7

C	-3.394549	3.441167	4.097141	
H	-4.353992	3.926697	4.27389	
H	-4.518479	0.1464527	4.063384	
H	-3.093848	3.413848	3.042228	
H	-2.631481	3.396685	4.866637	
C	-4.441505	-0.9759557	3.884706	
N	-4.661254	-2.099309	3.799644	
7

C	-3.3766	3.476315	4.090519	
H	-4.318479	3.983831	4.258092	
H	-4.492666	0.105802	4.013173	
H	-3.06035	3.476425	3.039618	
H	-2.613983	3.470663	4.851676	
C	-4.437704	-0.9655312	3.86273	
N	-4.664157	-2.092166	3.807136	
7

C	-3.359061	3.511042	4.082958	
H	-4.286108	4.040068	4.24676	
H	-4.461725	0.06768014	3.962015	
H	-3.026665	3.535504	3.041026	
H	-2.594167	3.542762	4.841483	
C	-4.429948	-0.9485794	3.839756	
N	-4.666552	-2.084803	3.814363	
7

C	-3.341453	3.546045	4.074488	
H	-4.258085	4.096844	4.239468	
H	-4.426091	0.06462549	3.912643	
H	-2.992208	3.591724	3.04447	
H	-2.571612	3.613878	4.836051	
C	-4.417816	-0.928343	3.814737	
N	-4.668242	-2.075818	3.82147	
7

C	-1.525545	1.954108	-0.8567756	
H	-1.752963	3.012288	-1.057524	
H	-1.685087	-1.02022	-0.5386078	
H	-1.852619	1.397051	0.06743956	
H	-0.8419174	1.404658	-1.515193	
C	-0.9903969	-1.861367	-0.2045412	
N	0.06537074	-2.310623	-0.1891795	
7

C	-3.324611	3.579514	4.06608	
H	-4.235668	4.150153	4.235711	
H	-4.387608	0.113335	3.868697	
H	-2.958822	3.641684	3.046902	
H	-2.549786	3.679276	4.833545	
C	-4.402041	-0.908018	3.788774	
N	-4.668831	-2.064249	3.828002	
7

C	-3.307441	3.613681	4.057788	
H	-4.215641	4.20137	4.233868	
H	-4.343879	0.1968631	3.825065	
H	-2.924631	3.688284	3.046162	
H	-2.530304	3.741796	4.830894	
C	-4.382586	-0.8863404	3.760699	
N	-4.668066	-2.048172	3.834214	
7

C	-3.290617	3.647371	4.050315	
H	-4.196652	4.246456	4.23247	
H	-4.298028	0.2770625	3.780992	
H	-2.891696	3.72963	3.041686	
H	-2.515941	3.797822	4.826094	
C	-4.365168	-0.8700899	3.734145	
N	-4.665769	-2.027502	3.839674	
7

C	-3.274112	3.680792	4.043732	
H	-4.177382	4.28394	4.230159	
H	-4.252068	0.3280017	3.735428	
H	-2.861264	3.76559	3.034554	
H	-2.507108	3.846454	4.818573	
C	-4.350674	-0.8588943	3.709817	
N	-4.661861	-2.002138	3.844218	
7

C	-3.257181	3.715472	4.037502	
H	-4.157215	4.315462	4.225935	
H	-4.206006	0.3409383	3.686654	
H	-2.833456	3.797823	3.026763	
H	-2.501652	3.889758	4.809411	
C	-4.337983	-0.8500633	3.686618	
N	-4.656414	-1.97201	3.848028	
7

C	-3.240528	3.74986	4.031526	
H	-4.138642	4.340654	4.219543	
H	-4.163217	0.3142099	3.637436	
H	-2.810696	3.825042	3.020716	
H	-2.496858	3.926229	4.801623	
C	-4.327004	-0.8419833	3.665328	
N	-4.650078	-1.939986	3.851047	
7

C	-3.22344	3.785233	4.025242	
H	-4.123271	4.362284	4.210699	
H	-4.12205	0.2555034	3.586235	
H	-2.7925	3.84868	3.016986	
H	-2.489476	3.958082	4.797616	
C	-4.316571	-0.832702	3.644684	
N	-4.643157	-1.90669	3.853654	
7

C	-3.206388	3.820411	4.01875	
H	-4.113572	4.38144	4.199891	
H	-4.08111	0.1881843	3.533969	
H	-2.77886	3.868568	3.014841	
H	-2.477993	3.985115	4.798932	
C	-4.306432	-0.8219325	3.624856	
N	-4.636472	-1.875042	3.856141	
7

C	-1.545992	1.938346	-0.8386246	
H	-1.797623	2.992525	-0.9832542	
H	-1.629014	-0.9537163	-0.5417325	
H	-1.874655	1.361396	0.07082254	
H	-0.8876938	1.421657	-1.532826	
C	-0.9915438	-1.82827	-0.2068332	
N	0.05391245	-2.304611	-0.1657814	
7

C	-3.15093	3.906002	3.989921	
H	-4.11288	4.428045	4.15557	
H	-3.897485	0.1931286	3.337512	
H	-2.749484	3.912269	2.993726	
H	-2.429318	4.042178	4.819205	
C	-4.275381	-0.7845687	3.566114	
N	-4.622549	-1.801705	3.867032	
7

C	-3.131833	3.923468	3.976814	
H	-4.109385	4.435366	4.135631	
H	-3.822018	0.2405601	3.260129	
H	-2.737307	3.923213	2.973907	
H	-2.417076	4.053993	4.819359	
C	-4.262869	-0.7664475	3.544936	
N	-4.620586	-1.785018	3.872688	
7

C	-0.4893585	-3.779738	-4.348621	
H	-1.337458	-3.051488	-4.384059	
H	-3.697164	-2.800668	-2.428187	
H	-0.4839053	-4.784328	-4.881269	
H	0.2165796	-3.625746	-3.499231	
C	-3.630389	-3.884006	-2.416457	
N	-3.310699	-4.96875	-2.496553	
7

C	-0.2516269	-3.917314	-3.968059	
H	-0.978201	-3.069223	-4.23984	
H	-3.759446	-2.819332	-2.696207	
H	-0.1449241	-4.826988	-4.721313	
H	0.7556634	-3.678347	-3.453517	
C	-3.618506	-3.862867	-2.411778	
N	-3.321488	-4.974843	-2.494143	
7

C	-0.2169563	-3.929153	-3.92791	
H	-0.9076778	-3.116177	-4.216902	
H	-3.725301	-2.829719	-2.729268	
H	-0.1462964	-4.804704	-4.700516	
H	0.669607	-3.683243	-3.499948	
C	-3.613788	-3.863942	-2.416628	
N	-3.324604	-4.971774	-2.491631	
7

C	1.079507	-4.030189	-4.886839	
H	0.3847361	-3.215828	-4.719407	
H	-2.121172	-3.54364	-3.589044	
H	0.5845184	-4.923305	-4.730327	
H	1.899412	-4.051816	-4.191752	
C	-2.865788	-4.057816	-2.929455	
N	-3.548856	-4.79645	-2.346369	
7

C	1.113387	-4.037206	-4.921163	
H	0.4807264	-3.191567	-4.81651	
H	-2.136453	-3.550316	-3.596745	
H	0.5821087	-4.957002	-4.71877	
H	1.996316	-4.042487	-4.253057	
C	-2.835821	-4.078219	-2.94328	
N	-3.551805	-4.779011	-2.34825	
7

C	1.143968	-4.044001	-4.953242	
H	0.5642133	-3.155392	-4.910249	
H	-2.136909	-3.557142	-3.610454	
H	0.5754214	-4.994753	-4.714609	
H	2.086086	-4.029022	-4.318448	
C	-2.808979	-4.098881	-2.955488	
N	-3.553336	-4.761352	-2.35093	
7

C	1.168063	-4.049882	-4.982476	
H	0.634148	-3.108701	-4.991208	
H	-2.117539	-3.564075	-3.634594	
H	0.574202	-4.968377	-4.71939	
H	2.158011	-4.013741	-4.392937	
C	-2.785741	-4.119744	-2.965822	
N	-3.553299	-4.743586	-2.354455	
7

C	1.19092	-4.052958	-4.985548	
H	0.7004843	-3.058411	-4.902093	
H	-2.085992	-3.575485	-3.665893	
H	0.5783055	-4.922244	-4.731219	
H	2.212593	-3.998896	-4.482478	
C	-2.763805	-4.141627	-2.975626	
N	-3.551923	-4.724742	-2.358866	
7

C	1.214469	-4.050733	-4.961246	
H	0.7610989	-3.02064	-4.825667	
H	-2.057452	-3.595164	-3.693627	
H	0.5824074	-4.880269	-4.744644	
H	2.24832	-3.990232	-4.574994	
C	-2.744262	-4.161681	-2.984867	
N	-3.549679	-4.706894	-2.363465	
7

C	1.243645	-4.0421	-4.942062	
H	0.8233232	-2.999294	-4.755574	
H	-2.039214	-3.626769	-3.714529	
H	0.5814587	-4.849302	-4.756766	
H	2.279929	-3.990104	-4.672096	
C	-2.724571	-4.181162	-2.995063	
N	-3.54671	-4.688682	-2.368394	
7

C	-3.112959	3.934524	3.963421	
H	-4.09774	4.435875	4.112536	
H	-3.755393	0.2697032	3.1861	
H	-2.722551	3.932662	2.948279	
H	-2.409572	4.062343	4.811353	
C	-4.248177	-0.7436643	3.522167	
N	-4.619527	-1.77036	3.879136	
7

C	3.794133	-0.7115462	-2.886583	
H	3.780857	-0.05797365	-3.7706	
H	-0.3409164	-2.341837	-3.306016	
H	4.806235	-0.8168455	-2.460789	
H	2.89542	-0.7295357	-2.285166	
C	0.1394853	-3.435825	-3.263058	
N	0.3776432	-4.525676	-2.882972	
7

C	1.276563	-4.027765	-4.929007	
H	0.8850698	-2.996506	-4.694139	
H	-2.035566	-3.667816	-3.726102	
H	0.5758455	-4.832403	-4.76648	
H	2.319841	-4.000223	-4.766169	
C	-2.70514	-4.199278	-3.006107	
N	-3.543313	-4.67085	-2.373322	
7

C	1.306448	-4.008575	-4.92016	
H	0.9449923	-3.008074	-4.640468	
H	-2.040616	-3.714387	-3.73137	
H	0.5726395	-4.823152	-4.775554	
H	2.37525	-4.021419	-4.856484	
C	-2.686394	-4.216238	-3.01766	
N	-3.53949	-4.653467	-2.378213	
7

C	1.324824	-3.984693	-4.913854	
H	1.002242	-3.023247	-4.589643	
H	-2.037958	-3.76361	-3.740477	
H	0.5797291	-4.812554	-4.786348	
H	2.438737	-4.053276	-4.947568	
C	-2.668643	-4.233119	-3.029251	
N	-3.53501	-4.635985	-2.383276	
7

C	1.326806	-3.95751	-4.91172	
H	1.052235	-3.02649	-4.536614	
H	-2.013169	-3.813242	-3.765029	
H	0.6002511	-4.795696	-4.79966	
H	2.488783	-4.091955	-4.956597	
C	-2.652881	-4.250171	-3.039998	
N	-3.529816	-4.618607	-2.388504	
7

C	1.311345	-3.928119	-4.91618	
H	1.092187	-3.006229	-4.475138	
H	-1.963689	-3.866784	-3.80771	
H	0.6306719	-4.772726	-4.815058	
H	2.508111	-4.132848	-4.866427	
C	-2.638844	-4.267513	-3.050121	
N	-3.523884	-4.60116	-2.393919	
7

C	0.1261431	-3.879947	-4.990771	
H	-0.06891029	-2.949731	-4.460608	
H	-1.979406	-4.82134	-4.18136	
H	-0.7299796	-4.559	-4.989982	
H	1.172256	-4.063967	-4.821667	
C	-2.506678	-4.491731	-3.262646	
N	-3.376608	-4.398793	-2.482257	
7

C	0.2498855	-4.850663	-4.762427	
H	0.7416873	-3.896069	-4.987503	
H	-3.84704	-4.755763	-4.486897	
H	-0.8237892	-4.956966	-4.997795	
H	0.6813213	-4.992581	-3.801806	
C	-3.458664	-4.551327	-3.489559	
N	-3.138564	-4.354883	-2.391714	
7

C	0.2908657	-4.837087	-4.734444	
H	0.7568321	-3.888026	-4.988119	
H	-3.849957	-4.715027	-4.408359	
H	-0.7647959	-4.954877	-4.992617	
H	0.7432504	-4.957519	-3.782453	
C	-3.444289	-4.551908	-3.502898	
N	-3.148861	-4.35666	-2.39438	
7

C	0.3800219	-4.803103	-4.704729	
H	0.7787287	-3.860591	-4.988107	
H	-3.889232	-4.657743	-4.417625	
H	-0.6510966	-4.962631	-4.972066	
H	0.8475917	-4.940026	-3.704225	
C	-3.411398	-4.549817	-3.509897	
N	-3.169211	-4.361049	-2.404926	
7

C	-3.094196	3.937603	3.949474	
H	-4.077709	4.429688	4.086799	
H	-3.703933	0.2703111	3.120136	
H	-2.706122	3.9406	2.921616	
H	-2.405517	4.067569	4.795802	
C	-4.23173	-0.718199	3.498298	
N	-4.618548	-1.755299	3.885619	
7

C	0.4284903	-4.783363	-4.69878	
H	0.7923814	-3.83153	-4.993519	
H	-3.910311	-4.636198	-4.485088	
H	-0.6025828	-4.974351	-4.95793	
H	0.8833995	-4.950047	-3.668116	
C	-3.394172	-4.547753	-3.507607	
N	-3.178728	-4.363397	-2.410759	
7

C	0.5847492	-4.718292	-4.701497	
H	0.8524141	-3.690289	-4.98491	
H	-3.769578	-4.559473	-4.587739	
H	-0.4700966	-4.972568	-4.90811	
H	0.9170901	-4.992796	-3.669735	
C	-3.358074	-4.543196	-3.525373	
N	-3.200793	-4.368538	-2.413338	
7

C	0.6423848	-4.694071	-4.711138	
H	0.8756707	-3.644953	-4.985939	
H	-3.644356	-4.530134	-4.574625	
H	-0.4183598	-4.957233	-4.893048	
H	0.9183473	-4.973689	-3.700643	
C	-3.35089	-4.541823	-3.5399	
N	-3.206373	-4.369846	-2.409867	
7

C	0.7003175	-4.669816	-4.726639	
H	0.8990201	-3.610603	-4.987261	
H	-3.497979	-4.50205	-4.568849	
H	-0.3634399	-4.943657	-4.882835	
H	0.9255035	-4.958076	-3.727534	
C	-3.344593	-4.539934	-3.552367	
N	-3.2114	-4.371358	-2.407157	
7

C	0.758459	-4.646381	-4.74903	
H	0.9236601	-3.587101	-4.988585	
H	-3.33264	-4.47501	-4.597113	
H	-0.305112	-4.931298	-4.880417	
H	0.9441025	-4.947338	-3.74086	
C	-3.338276	-4.53725	-3.558902	
N	-3.216228	-4.373334	-2.406773	
7

C	0.820626	-4.62321	-4.77911	
H	0.9531075	-3.567477	-4.99096	
H	-3.133327	-4.446905	-4.654853	
H	-0.2398764	-4.918855	-4.887956	
H	0.9769528	-4.938776	-3.744233	
C	-3.331178	-4.533503	-3.560485	
N	-3.2215	-4.375982	-2.409012	
7

C	1.351151	-4.479595	-4.994658	
H	1.409305	-3.402583	-4.999923	
H	-1.840698	-4.077193	-4.421764	
H	0.3647583	-4.919459	-4.803667	
H	2.197345	-4.979177	-4.646606	
C	-2.715333	-4.347117	-3.580705	
N	-3.413176	-4.456086	-2.616046	
7

C	1.369308	-4.47813	-4.973253	
H	1.407778	-3.404036	-4.998968	
H	-1.904381	-4.076519	-4.43483	
H	0.399223	-4.923726	-4.786874	
H	2.285538	-4.978574	-4.68532	
C	-2.666946	-4.331819	-3.572464	
N	-3.423335	-4.460832	-2.636579	
7

C	1.387555	-4.479086	-4.950356	
H	1.40641	-3.399088	-4.999694	
H	-1.978507	-4.079092	-4.427225	
H	0.4293438	-4.9306	-4.771798	
H	2.365618	-4.981749	-4.719708	
C	-2.626359	-4.317978	-3.561083	
N	-3.428431	-4.464533	-2.660094	
7

C	1.407197	-4.482105	-4.932651	
H	1.405347	-3.390447	-4.99901	
H	-2.050351	-4.08036	-4.414452	
H	0.4551232	-4.943743	-4.755369	
H	2.430885	-4.981329	-4.756907	
C	-2.591133	-4.304691	-3.544132	
N	-3.428596	-4.467473	-2.688987	
7

C	-3.076046	3.931271	3.934323	
H	-4.051939	4.417985	4.059722	
H	-3.670755	0.2416547	3.0655	
H	-2.689273	3.946676	2.89939	
H	-2.401938	4.069997	4.775796	
C	-4.214709	-0.693408	3.474645	
N	-4.616748	-1.737552	3.891101	
7

C	1.426848	-4.486624	-4.920226	
H	1.404906	-3.38376	-4.998514	
H	-2.090955	-4.07472	-4.420283	
H	0.4761308	-4.964114	-4.737332	
H	2.471371	-4.973415	-4.796994	
C	-2.562913	-4.292629	-3.521061	
N	-3.423992	-4.469608	-2.722064	
7

C	1.447243	-4.492597	-4.913494	
H	1.405318	-3.384223	-4.998097	
H	-2.089426	-4.060368	-4.452129	
H	0.4955879	-4.99064	-4.718143	
H	2.484866	-4.957702	-4.838902	
C	-2.540695	-4.281689	-3.49356	
N	-3.415808	-4.471147	-2.757561	
7

C	1.543347	-4.538278	-4.97021	
H	1.440649	-3.475316	-4.998316	
H	-1.763962	-4.017441	-4.38157	
H	0.6094956	-4.962298	-4.607801	
H	2.529279	-4.953833	-4.958297	
C	-2.404866	-4.213782	-3.421718	
N	-3.397875	-4.486479	-2.904089	
7

C	1.557848	-4.548958	-4.998616	
H	1.4591	-3.47872	-4.997909	
H	-1.69515	-4.026724	-4.281012	
H	0.6346845	-4.985586	-4.582051	
H	2.580192	-4.989631	-4.918	
C	-2.368945	-4.197053	-3.424547	
N	-3.400079	-4.491163	-2.926545	
7

C	1.570665	-4.56015	-4.975678	
H	1.480267	-3.4739	-4.999507	
H	-1.632416	-4.036261	-4.186332	
H	0.6648856	-4.988437	-4.560235	
H	2.615304	-4.979143	-4.881031	
C	-2.340239	-4.182992	-3.426952	
N	-3.398683	-4.494449	-2.948092	
7

C	1.583729	-4.571877	-4.955965	
H	1.50527	-3.46809	-4.998066	
H	-1.55549	-4.042806	-4.109042	
H	0.6964866	-4.970232	-4.5373	
H	2.632684	-4.943531	-4.844483	
C	-2.319494	-4.171361	-3.426504	
N	-3.391834	-4.496046	-2.971518	
7

C	1.597496	-4.582808	-4.94342	
H	1.533626	-3.468678	-4.999819	
H	-1.454619	-4.045045	-4.053539	
H	0.7198036	-4.966756	-4.507163	
H	2.635576	-4.908839	-4.806966	
C	-2.307668	-4.162414	-3.422406	
N	-3.378666	-4.495672	-2.997577	
7

C	1.610653	-4.592216	-4.939322	
H	1.563497	-3.479614	-4.998451	
H	-1.342003	-4.045379	-4.007553	
H	0.7320973	-4.978981	-4.468011	
H	2.632324	-4.880215	-4.767387	
C	-2.302457	-4.155777	-3.416167	
N	-3.360023	-4.493485	-3.025871	
7

C	1.620386	-4.59981	-4.944846	
H	1.59185	-3.499874	-4.999558	
H	-1.241319	-4.047137	-3.958269	
H	0.7398006	-4.999985	-4.424155	
H	2.632478	-4.862851	-4.725216	
C	-2.299513	-4.150718	-3.410089	
N	-3.338328	-4.490088	-3.055009	
7

C	-3.057865	3.914741	3.916769	
H	-4.023692	4.402053	4.031407	
H	-3.652422	0.1901235	3.019178	
H	-2.671683	3.950657	2.883773	
H	-2.395027	4.070115	4.75448	
C	-4.197659	-0.6714722	3.451508	
N	-4.613271	-1.714471	3.894913	
7

C	-3.040291	3.888117	3.897253	
H	-3.998143	4.383889	4.003652	
H	-3.6418	0.132475	2.977044	
H	-2.653107	3.9518	2.874878	
H	-2.382444	4.068045	4.735242	
C	-4.18237	-0.6557523	3.430792	
N	-4.607732	-1.68562	3.896347	
7

C	-2.57877	-3.959064	-4.811666	
H	-2.747235	-2.852578	-4.778081	
H	-3.508366	-4.447701	-4.580857	
H	-1.731553	-3.702374	-1.987602	
H	-1.561867	-4.400772	-4.525843	
C	-2.748735	-3.932588	-1.783322	
N	-3.863218	-4.211934	-1.94406	
7

C	-2.601695	-3.953552	-4.872202	
H	-2.747754	-2.828005	-4.75714	
H	-3.502863	-4.434856	-4.568302	
H	-1.733104	-3.698845	-2.081771	
H	-1.607118	-4.36829	-4.459701	
C	-2.755939	-3.928028	-1.781087	
N	-3.867968	-4.208464	-1.918033	
7

C	-3.024012	3.852297	3.876677	
H	-3.978121	4.364397	3.977718	
H	-3.627768	0.08866544	2.931081	
H	-2.632476	3.949594	2.869316	
H	-2.364769	4.063428	4.718392	
C	-4.170226	-0.6480494	3.413912	
N	-4.600301	-1.651993	3.895328	
7

C	-3.009255	3.807397	3.855807	
H	-3.962855	4.342175	3.953629	
H	-3.6034	0.06863365	2.875053	
H	-2.608002	3.943585	2.862394	
H	-2.344475	4.054895	4.701082	
C	-4.161265	-0.6477895	3.400834	
N	-4.591446	-1.614798	3.892332	
7

C	-3.009255	3.807397	3.855807	
H	-3.962855	4.342175	3.953629	
H	-3.6034	0.06863365	2.875053	
H	-2.608002	3.943585	2.862394	
H	-2.344475	4.054895	4.701082	
C	-4.161265	-0.6477895	3.400834	
N	-4.591446	-1.614798	3.892332	
7

C	-3.121964	-4.026849	-4.253804	
H	-3.230076	-3.20586	-3.541683	
H	-3.146471	-4.966054	-3.702913	
H	-2.153677	-3.930044	-4.73687	
H	-3.911011	-3.999312	-4.995831	
C	1.440462	-3.813417	-4.810967	
N	0.5963734	-3.099134	-4.559752	
7

C	-3.111956	-4.013235	-4.24126	
H	-3.224531	-3.19902	-3.531393	
H	-3.104589	-4.96565	-3.70732	
H	-2.156447	-3.879414	-4.777287	
H	-3.936634	-3.990368	-4.959522	
C	1.668229	-3.973509	-4.938589	
N	0.9276935	-3.083216	-4.946417	
7

C	-2.995704	3.752845	3.834406	
H	-3.948792	4.313817	3.93028	
H	-3.572793	0.06488532	2.811531	
H	-2.578276	3.933156	2.850876	
H	-2.324538	4.040201	4.679135	
C	-4.153516	-0.6513573	3.389349	
N	-4.582002	-1.575492	3.888508	
7

C	-3.028616	-4.003841	-4.277408	
H	-3.138561	-3.183909	-3.564608	
H	-3.077682	-4.943873	-3.73019	
H	-2.072845	-3.954228	-4.867273	
H	-3.87686	-3.990554	-4.95336	
C	1.300505	-4.075114	-4.951105	
N	1.098102	-3.01705	-4.622022	
7

C	-1.56607	1.922368	-0.82006	
H	-1.840565	2.970544	-0.9103217	
H	-1.567253	-0.8990235	-0.5408686	
H	-1.891711	1.323435	0.0671462	
H	-0.9317366	1.439455	-1.551193	
C	-0.9925436	-1.793862	-0.210359	
N	0.04265741	-2.299492	-0.1427604	
7

C	-2.944574	-4.011021	-4.330802	
H	-2.922296	-3.138393	-3.678758	
H	-2.962281	-4.93078	-3.755426	
H	-2.023094	-3.966768	-4.977701	
H	-3.794342	-3.935979	-4.997375	
C	0.8873587	-4.03053	-4.987816	
N	1.132244	-3.046749	-4.476577	
7

C	-2.901834	-4.005478	-4.366269	
H	-2.840069	-3.144026	-3.698958	
H	-2.894823	-4.925197	-3.77121	
H	-1.986467	-4.04618	-4.965966	
H	-3.805488	-3.938243	-4.988447	
C	0.7202827	-3.976207	-4.991943	
N	1.162105	-3.118325	-4.424919	
7

C	-2.93983	3.529609	3.746671	
H	-3.87762	4.052802	3.833002	
H	-3.559479	0.0160713	2.650266	
H	-2.441657	3.780697	2.79541	
H	-2.278149	3.846105	4.529029	
C	-4.078458	-0.6098964	3.294852	
N	-4.570303	-1.456059	3.904341	
7

C	-2.928009	3.494435	3.728822	
H	-3.880957	3.986485	3.815978	
H	-3.55728	0.02473322	2.618003	
H	-2.426157	3.726551	2.790343	
H	-2.263391	3.789756	4.517899	
C	-4.060228	-0.5968798	3.27254	
N	-4.572048	-1.440218	3.911788	
7

C	-2.915549	3.46034	3.710411	
H	-3.894203	3.918036	3.79938	
H	-3.542674	0.0528578	2.570162	
H	-2.412775	3.66598	2.780093	
H	-2.244215	3.729068	4.518232	
C	-4.044655	-0.5884909	3.253514	
N	-4.572406	-1.421809	3.917539	
7

C	-2.902912	3.427824	3.692553	
H	-3.912295	3.848046	3.783102	
H	-3.523877	0.08893419	2.5182	
H	-2.399696	3.602452	2.760704	
H	-2.225089	3.665054	4.525318	
C	-4.032146	-0.5849845	3.238206	
N	-4.570697	-1.400293	3.920656	
7

C	1.10824	1.247308	-2.19101	
H	0.8919924	2.224498	-1.766984	
H	1.937661	1.330398	-2.888646	
H	1.372906	0.5570448	-1.394125	
H	0.230436	0.8770524	-2.714315	
C	1.003576	-2.504882	3.027608	
N	0.6670514	-1.676464	2.339962	
7

C	1.113079	1.225872	-2.189843	
H	0.9322273	2.18338	-1.764016	
H	1.895012	1.326418	-2.953104	
H	1.43057	0.6220178	-1.394796	
H	0.2420274	0.87445	-2.718153	
C	1.02452	-2.50041	3.016865	
N	0.6516517	-1.668844	2.343219	
7

C	-2.890316	3.396866	3.67589	
H	-3.928641	3.775312	3.766595	
H	-3.510642	0.119084	2.476023	
H	-2.386173	3.537536	2.731246	
H	-2.210765	3.597574	4.532983	
C	-4.022108	-0.5852867	3.225727	
N	-4.566728	-1.375593	3.920902	
7

C	-2.877611	3.366802	3.660239	
H	-3.937924	3.697951	3.749141	
H	-3.508694	0.1343249	2.452107	
H	-2.373276	3.470729	2.695061	
H	-2.20417	3.525937	4.536249	
C	-4.013486	-0.5878266	3.214603	
N	-4.56073	-1.3479	3.918672	
7

C	-1.585875	1.90623	-0.801024	
H	-1.881888	2.949078	-0.8400608	
H	-1.505711	-0.8508515	-0.5385741	
H	-1.903254	1.281072	0.05837622	
H	-0.9726621	1.456812	-1.571622	
C	-0.9923065	-1.758848	-0.2148308	
N	0.0310826	-2.295061	-0.1201714	
7

C	-2.865094	3.338252	3.645665	
H	-3.937102	3.618463	3.731084	
H	-3.519562	0.1305462	2.450104	
H	-2.363841	3.404109	2.659801	
H	-2.206209	3.453182	4.532567	
C	-4.005631	-0.5909545	3.203902	
N	-4.553508	-1.319028	3.914855	
7

C	-2.852352	3.310194	3.631161	
H	-3.926867	3.535963	3.712141	
H	-3.540811	0.1099094	2.466619	
H	-2.359677	3.336315	2.630918	
H	-2.215088	3.378721	4.522522	
C	-3.99756	-0.5934367	3.192317	
N	-4.545723	-1.289495	3.910464	
7

C	-2.839567	3.282857	3.61637	
H	-3.911283	3.453457	3.693083	
H	-3.564806	0.08210904	2.490662	
H	-2.361296	3.269146	2.612496	
H	-2.226842	3.304962	4.509663	
C	-3.989005	-0.5945911	3.179601	
N	-4.53839	-1.261045	3.906736	
7

C	-2.826773	3.256052	3.600896	
H	-3.895796	3.372209	3.674413	
H	-3.580234	0.06339394	2.504552	
H	-2.367223	3.203139	2.604311	
H	-2.237107	3.232366	4.498398	
C	-3.980076	-0.5946898	3.1661	
N	-4.532227	-1.234612	3.904647	
7

C	-2.813895	3.229228	3.584558	
H	-3.884748	3.291379	3.65618	
H	-3.577486	0.06844711	2.492398	
H	-2.374143	3.137215	2.601663	
H	-2.242949	3.159474	4.491456	
C	-3.970944	-0.594404	3.152226	
N	-4.527546	-1.210218	3.904752	
7

C	2.070672	-0.5910605	-2.593887	
H	1.701261	0.4023088	-2.319235	
H	3.168312	-0.6289334	-2.54591	
H	1.714326	-1.348562	-1.903062	
H	1.760554	-0.9602839	-3.611841	
C	0.4662108	-0.9870462	2.192212	
N	1.444352	-1.56247	2.318944	
7

C	-2.801204	3.202358	3.567931	
H	-3.879549	3.210896	3.638462	
H	-3.556257	0.09714379	2.453479	
H	-2.377723	3.070713	2.597488	
H	-2.243656	3.085883	4.48835	
C	-3.961432	-0.5935476	3.137738	
N	-4.524486	-1.187945	3.907277	
7

C	-2.789115	3.175551	3.5519	
H	-3.877773	3.13111	3.621148	
H	-3.525844	0.133542	2.403052	
H	-2.374379	3.002952	2.585716	
H	-2.240694	3.012069	4.485328	
C	-3.951034	-0.5910997	3.121713	
N	-4.522847	-1.167589	3.911948	
7

C	2.339582	-1.108754	-2.711335	
H	2.102335	-0.1247225	-2.349803	
H	2.466835	-1.021988	-3.75743	
H	3.224995	-1.497934	-2.227049	
H	1.571345	-1.813756	-2.397677	
C	0.5620357	-1.235433	2.513048	
N	1.43618	-0.9621867	1.835117	
7

C	-2.777957	3.148824	3.537036	
H	-3.874799	3.052983	3.603992	
H	-3.496487	0.1604255	2.357925	
H	-2.363246	2.933962	2.56559	
H	-2.236336	2.93931	4.477607	
C	-3.939684	-0.58645	3.103852	
N	-4.522005	-1.148548	3.917871	
7

C	2.355912	-1.132502	-2.712796	
H	2.106219	-0.1546603	-2.331351	
H	2.390506	-1.068918	-3.80996	
H	3.275331	-1.460798	-2.276355	
H	1.563071	-1.805493	-2.364955	
C	0.5685886	-1.246299	2.517052	
N	1.425234	-0.9375108	1.820007	
7

C	2.457509	-1.318951	-2.748627	
H	2.265527	-0.3154139	-2.416021	
H	1.954438	-1.458762	-3.693634	
H	3.502701	-1.417042	-2.826621	
H	1.936564	-2.015999	-2.05553	
C	0.5628098	-1.244243	2.407274	
N	1.286509	-0.7279872	1.713679	
7

C	-2.767777	3.121876	3.523217	
H	-3.866392	2.977633	3.586689	
H	-3.474207	0.167979	2.327757	
H	-2.346354	2.864912	2.542306	
H	-2.232251	2.868896	4.461743	
C	-3.927995	-0.5798982	3.084921	
N	-4.521003	-1.129857	3.923698	
7

C	2.532985	-1.490012	-2.782954	
H	2.442102	-0.4545608	-2.508418	
H	1.693384	-1.835367	-3.449274	
H	3.421312	-1.604621	-3.347438	
H	2.664976	-2.07392	-1.88355	
C	0.4167854	-1.134696	2.014839	
N	1.228585	-0.4659779	1.542361	
7

C	2.543568	-1.505277	-2.788534	
H	2.451632	-0.4600618	-2.498586	
H	1.649883	-1.879649	-3.401673	
H	3.430507	-1.596135	-3.403131	
H	2.678232	-2.070156	-1.866292	
C	0.4087967	-1.118175	1.956893	
N	1.22535	-0.4444711	1.527666	
7

C	-2.758367	3.094157	3.509813	
H	-3.850522	2.906037	3.568973	
H	-3.460662	0.1539269	2.314811	
H	-2.327098	2.797983	2.523455	
H	-2.228839	2.801694	4.436889	
C	-3.916987	-0.5723664	3.06639	
N	-4.518785	-1.110445	3.927944	
7

C	-1.606014	1.889474	-0.7811037	
H	-1.92302	2.928617	-0.770699	
H	-1.448188	-0.7999127	-0.5380042	
H	-1.909787	1.230776	0.04748885	
H	-1.012357	1.47455	-1.594268	
C	-0.9897038	-1.722998	-0.2199932	
N	0.01822489	-2.290867	-0.09730728	
7

C	-2.749305	3.064735	3.495918	
H	-3.827665	2.838069	3.550473	
H	-3.453757	0.1215834	2.315269	
H	-2.308167	2.734855	2.514696	
H	-2.225185	2.737287	4.404433	
C	-3.907658	-0.5649212	3.049764	
N	-4.514413	-1.089173	3.92936	
7

C	2.655763	-1.723573	-2.845283	
H	2.526188	-0.6535841	-2.646276	
H	1.725407	-2.249149	-2.667835	
H	3.069279	-1.818077	-3.849005	
H	3.337108	-2.101718	-2.070026	
C	0.7036968	-0.8645374	0.8147887	
N	1.185269	0.09191015	1.256523	
7

C	2.662851	-1.731718	-2.850495	
H	2.513943	-0.680936	-2.644941	
H	1.735305	-2.246346	-2.624314	
H	3.04893	-1.826671	-3.837168	
H	3.342004	-2.099176	-2.092229	
C	0.7361856	-0.8504054	0.7865241	
N	1.176178	0.1134551	1.244529	
7

C	-2.740482	3.033862	3.481286	
H	-3.801615	2.775719	3.531605	
H	-3.448057	0.08061782	2.319553	
H	-2.291527	2.679007	2.51813	
H	-2.219595	2.677181	4.368905	
C	-3.901267	-0.558946	3.037119	
N	-4.507434	-1.066013	3.92709	
7

C	-2.731594	3.001173	3.465621	
H	-3.777059	2.718649	3.512352	
H	-3.435559	0.04236901	2.314578	
H	-2.276798	2.630964	2.530977	
H	-2.210109	2.620899	4.334715	
C	-3.898443	-0.5553282	3.029557	
N	-4.497774	-1.040805	3.921021	
7

C	-2.722526	2.966737	3.449199	
H	-3.75856	2.666664	3.492851	
H	-3.410996	0.01369544	2.291826	
H	-2.261847	2.589934	2.546037	
H	-2.195658	2.568622	4.305659	
C	-3.898889	-0.5540039	3.026786	
N	-4.486068	-1.014098	3.912015	
7

C	-2.713403	2.930951	3.432801	
H	-3.748606	2.620151	3.473314	
H	-3.376955	-0.008247055	2.254805	
H	-2.243477	2.554149	2.553702	
H	-2.176758	2.521605	4.283699	
C	-3.900938	-0.5535665	3.026433	
N	-4.473668	-0.9871081	3.901966	
7

C	-2.676941	2.772072	3.374293	
H	-3.747679	2.494551	3.392539	
H	-3.285326	-0.1562696	2.158791	
H	-2.128458	2.449399	2.451355	
H	-2.099931	2.407608	4.24129	
C	-3.881421	-0.5276081	2.984271	
N	-4.444287	-0.8948624	3.892669	
7

C	-2.666834	2.727643	3.359695	
H	-3.740967	2.477681	3.371434	
H	-3.276939	-0.2064179	2.150084	
H	-2.108013	2.440279	2.420335	
H	-2.089243	2.397761	4.234334	
C	-3.868902	-0.5154769	2.96275	
N	-4.442312	-0.8754127	3.898535	
7

C	-1.625011	1.873307	-0.7619809	
H	-1.960964	2.909843	-0.7069628	
H	-1.401905	-0.7443798	-0.5413521	
H	-1.910908	1.174591	0.03800384	
H	-1.049993	1.492733	-1.615367	
C	-0.9841866	-1.689396	-0.2251704	
N	0.004526815	-2.286931	-0.07574555	
7

C	3.145986	-2.657788	-3.033783	
H	2.715957	-1.681727	-2.806703	
H	4.271962	-2.639937	-2.955799	
H	2.803745	-3.419309	-2.310683	
H	2.857901	-2.986836	-4.040503	
C	0.3596661	-1.164998	-0.0909901	
N	0.7827513	-0.3602473	-0.794245	
7

C	3.157879	-2.668079	-3.036037	
H	2.728998	-1.699401	-2.795695	
H	4.25139	-2.625326	-3.002235	
H	2.814956	-3.435577	-2.324111	
H	2.814881	-3.041982	-4.004895	
C	0.3334345	-1.177459	-0.1122479	
N	0.7829822	-0.3878823	-0.8155289	
7

C	3.16963	-2.679419	-3.038097	
H	2.74104	-1.716501	-2.785323	
H	4.228321	-2.610002	-3.049768	
H	2.828281	-3.445498	-2.336869	
H	2.774365	-3.091237	-3.970272	
C	0.3066902	-1.190988	-0.1323889	
N	0.7837689	-0.4144102	-0.8375746	
7

C	-2.656168	2.682798	3.344523	
H	-3.730202	2.465055	3.350754	
H	-3.261156	-0.2504021	2.128252	
H	-2.097879	2.439239	2.399688	
H	-2.082504	2.392996	4.228584	
C	-3.857728	-0.5043949	2.943797	
N	-4.44001	-0.8560799	3.90344	
7

C	-2.644725	2.636962	3.328398	
H	-3.717415	2.454887	3.330243	
H	-3.234411	-0.2877009	2.088302	
H	-2.096545	2.44419	2.388333	
H	-2.078316	2.391385	4.224695	
C	-3.849332	-0.4951489	2.929712	
N	-4.43611	-0.8356403	3.905477	
7

C	-2.632773	2.590815	3.31178	
H	-3.705482	2.446021	3.310205	
H	-3.203398	-0.3206318	2.03942	
H	-2.099898	2.452397	2.381287	
H	-2.075502	2.391555	4.223038	
C	-3.84392	-0.4880006	2.921031	
N	-4.430021	-0.8138326	3.903591	
7

C	-2.620703	2.544685	3.295376	
H	-3.696446	2.437722	3.290814	
H	-3.179097	-0.3520641	1.996813	
H	-2.10204	2.46147	2.370602	
H	-2.073307	2.392677	4.222968	
C	-3.840609	-0.4827094	2.916579	
N	-4.421708	-0.7906533	3.897696	
7

C	-2.608876	2.498482	3.279774	
H	-3.690541	2.42966	3.272107	
H	-3.169828	-0.3832409	1.972229	
H	-2.097933	2.470309	2.349644	
H	-2.071442	2.394342	4.222878	
C	-3.838115	-0.4788278	2.914424	
N	-4.411604	-0.7662616	3.888539	
7

C	-2.597586	2.452437	3.265209	
H	-3.686325	2.421808	3.254278	
H	-3.179033	-0.4135022	1.97094	
H	-2.086347	2.478968	2.318387	
H	-2.069854	2.396332	4.220852	
C	-3.835193	-0.4759006	2.912515	
N	-4.400587	-0.7412118	3.877557	
7

C	-2.586746	2.406331	3.25114	
H	-3.681369	2.414053	3.237312	
H	-3.204749	-0.4416628	1.990545	
H	-2.070164	2.487685	2.283779	
H	-2.068408	2.39852	4.215354	
C	-3.830823	-0.4734644	2.909047	
N	-4.389611	-0.7158659	3.866413	
7

C	-2.576267	2.360575	3.236925	
H	-3.673472	2.406242	3.221334	
H	-3.238656	-0.4660663	2.019516	
H	-2.054085	2.495801	2.255719	
H	-2.06682	2.400774	4.205643	
C	-3.824939	-0.4707729	2.903149	
N	-4.379688	-0.6907946	3.856799	
7

C	-2.565992	2.315315	3.221977	
H	-3.661387	2.398019	3.206272	
H	-3.266963	-0.485832	2.037485	
H	-2.041654	2.502067	2.241403	
H	-2.064693	2.402948	4.191567	
C	-3.820204	-0.4645404	2.895566	
N	-4.371472	-0.6662092	3.849863	
7

C	-2.555761	2.270371	3.205987	
H	-3.645234	2.388876	3.191856	
H	-3.277155	-0.501382	2.024881	
H	-2.034004	2.50534	2.242898	
H	-2.061651	2.404774	4.173365	
C	-3.817353	-0.4541352	2.888081	
N	-4.365206	-0.6419772	3.846128	
7

C	-1.644023	1.856694	-0.7426614	
H	-1.997766	2.889571	-0.6444983	
H	-1.363292	-0.6815057	-0.5488611	
H	-1.906044	1.109513	0.03019587	
H	-1.090036	1.513901	-1.633493	
C	-0.9753194	-1.655879	-0.2305717	
N	-0.0110393	-2.282858	-0.05410103	
7

C	-1.662387	1.84011	-0.7238698	
H	-2.031761	2.866413	-0.5851907	
H	-1.330329	-0.6196215	-0.5586765	
H	-1.893892	1.040858	0.0233415	
H	-1.132318	1.538083	-1.645963	
C	-0.9638577	-1.623071	-0.2360742	
N	-0.02778396	-2.278798	-0.03313045	
7

C	1.068107	-0.5435346	-4.867384	
H	2.006066	-0.3598171	-4.446856	
H	0.6135623	-1.806745	-2.029754	
H	0.4203692	0.2900144	-4.487699	
H	0.6367838	-1.608985	-4.90531	
C	-0.3483129	-1.178733	-2.228898	
N	-1.365481	-0.7559984	-1.83128	
7

C	1.47218	-0.4429137	-3.735235	
H	2.040468	-0.1837238	-2.792344	
H	-0.9476424	-2.187146	-1.524888	
H	1.336937	0.2739243	-4.609937	
H	0.6920517	-1.224635	-3.75886	
C	-0.8358339	-1.190471	-1.832388	
N	-1.308999	-0.1965515	-2.180292	
7

C	1.48797	-0.4356697	-3.712429	
H	1.960885	-0.2138737	-2.776283	
H	-0.9879339	-2.204152	-1.606134	
H	1.372257	0.2676679	-4.568405	
H	0.7158667	-1.227619	-3.716227	
C	-0.8566653	-1.180361	-1.80682	
N	-1.301592	-0.1922288	-2.191716	
7

C	1.691751	-0.3840135	-3.220398	
H	1.451616	0.01288498	-2.254773	
H	-1.051664	-1.936705	-1.112246	
H	2.14148	0.3008804	-3.998032	
H	1.246348	-1.247062	-3.813415	
C	-1.365209	-1.070856	-1.675242	
N	-1.12068	-0.08380875	-2.253248	
7

C	-1.680133	1.823334	-0.7055004	
H	-2.062763	2.83893	-0.5287335	
H	-1.299667	-0.5664321	-0.5689091	
H	-1.873176	0.9736175	0.0154395	
H	-1.177013	1.565371	-1.652047	
C	-0.9503797	-1.590278	-0.2418234	