7
Structures with energy above -347700 kj/mol and CC distance >= 3
C	1.799133	1.933283	2.092738	
H	0.721115	1.822262	2.054715	
H	2.148691	2.372875	2.963365	
H	2.410206	1.039743	1.890687	
H	1.974791	2.589455	1.186021	
C	1.612911	3.993273	-2.359574	
N	1.025301	3.083211	-1.967506	
7

C	1.789905	1.943905	2.040124	
H	0.6857939	1.852951	2.005569	
H	2.153625	2.400251	2.936211	
H	2.378128	1.039631	1.854645	
H	1.966774	2.640312	1.194874	
C	1.62559	3.996009	-2.371369	
N	1.025134	3.087022	-1.955919	
7

C	1.780477	1.954956	1.987008	
H	0.6601603	1.875287	1.964605	
H	2.158087	2.4312	2.919109	
H	2.339793	1.038387	1.819926	
H	1.961993	2.701454	1.203551	
C	1.637536	3.99809	-2.38257	
N	1.025303	3.091223	-1.94488	
7

C	1.77057	1.9674	1.93553	
H	0.6498961	1.890474	1.931134	
H	2.15525	2.455097	2.897552	
H	2.298729	1.035134	1.783659	
H	1.961416	2.771239	1.205375	
C	1.647874	3.998233	-2.392545	
N	1.026557	3.096918	-1.934931	
7

C	1.552373	1.652367	1.110916	
H	1.430122	2.608049	0.6224406	
H	0.8705143	1.764564	1.907333	
H	1.06096	0.9390446	0.4092522	
H	2.595513	1.336004	1.280885	
C	-1.661445	1.805457	-2.00966	
N	-0.9958316	2.180913	-2.927069	
7

C	1.760027	1.982426	1.885405	
H	0.6540653	1.90051	1.902651	
H	2.14152	2.465799	2.862878	
H	2.257153	1.030079	1.742479	
H	1.964114	2.845794	1.19854	
C	1.656398	3.995744	-2.401183	
N	1.029369	3.104869	-1.926126	
7

C	-3.12993	-4.033702	-4.259222	
H	-3.235593	-3.203665	-3.560461	
H	-3.147856	-4.974991	-3.714407	
H	-2.13642	-3.929094	-4.717562	
H	-3.937813	-3.999053	-4.98797	
C	1.318946	-3.712924	-4.800203	
N	0.332011	-3.086899	-4.200563	
7

C	-3.119937	-4.025876	-4.251901	
H	-3.235794	-3.202693	-3.537501	
H	-3.150323	-4.965938	-3.70336	
H	-2.151822	-3.930745	-4.748858	
H	-3.908831	-3.999299	-4.993547	
C	1.52864	-3.882695	-4.840431	
N	0.5790276	-3.055332	-4.592812	
7

C	-3.108114	-4.0196	-4.241579	
H	-3.251648	-3.189239	-3.547194	
H	-3.156204	-4.970928	-3.717456	
H	-2.176882	-3.907945	-4.771275	
H	-3.912443	-3.993013	-4.965842	
C	1.680957	-3.968198	-4.988152	
N	0.7717354	-3.058302	-4.861609	
7

C	-3.10903	-4.019197	-4.240788	
H	-3.247858	-3.186701	-3.545338	
H	-3.150759	-4.970647	-3.717014	
H	-2.170888	-3.897898	-4.774938	
H	-3.915318	-3.991994	-4.963628	
C	1.650035	-3.93508	-4.968991	
N	0.8266194	-3.091526	-4.89638	
7

C	-3.111458	-4.011682	-4.242793	
H	-3.221553	-3.201308	-3.525143	
H	-3.09384	-4.961901	-3.706971	
H	-2.152223	-3.885424	-4.776814	
H	-3.936637	-3.991256	-4.954357	
C	1.705369	-4.022643	-4.947106	
N	0.9160543	-3.046879	-4.916723	
7

C	-3.110384	-4.010267	-4.244369	
H	-3.219482	-3.202857	-3.519409	
H	-3.084984	-4.95807	-3.707563	
H	-2.142442	-3.893019	-4.778585	
H	-3.936242	-3.992424	-4.949311	
C	1.72917	-4.059008	-4.960447	
N	0.9107767	-3.020627	-4.890227	
7

C	-3.098452	-4.005028	-4.250563	
H	-3.212194	-3.208377	-3.511315	
H	-3.066799	-4.950484	-3.712345	
H	-2.089756	-3.92597	-4.795776	
H	-3.939915	-3.997682	-4.941477	
C	1.702542	-4.089506	-4.964059	
N	0.9479687	-3.00347	-4.807521	
7

C	-3.090644	-4.00315	-4.2535	
H	-3.207565	-3.209934	-3.513599	
H	-3.064586	-4.950467	-3.714149	
H	-2.076166	-3.937868	-4.802355	
H	-3.940461	-3.999396	-4.94173	
C	1.65716	-4.072215	-4.943673	
N	0.9775064	-3.018994	-4.779849	
7

C	-3.082074	-4.001806	-4.256664	
H	-3.201665	-3.209952	-3.517992	
H	-3.064786	-4.951086	-3.715905	
H	-2.070228	-3.946947	-4.807961	
H	-3.937792	-4.000408	-4.942337	
C	1.602152	-4.047423	-4.934045	
N	1.008443	-3.040107	-4.756476	
7

C	1.749704	2.000089	1.838599	
H	0.6665632	1.906623	1.878314	
H	2.11715	2.460328	2.814988	
H	2.218658	1.025774	1.696214	
H	1.967631	2.913922	1.184663	
C	1.662715	3.990603	-2.408078	
N	1.033738	3.114903	-1.918859	
7

C	-3.01757	-4.005332	-4.281925	
H	-3.118865	-3.17688	-3.578362	
H	-3.076616	-4.941924	-3.732474	
H	-2.068846	-3.949099	-4.886924	
H	-3.864502	-3.985063	-4.961493	
C	1.246642	-4.116354	-4.944986	
N	1.102429	-2.981658	-4.590302	
7

C	-3.006644	-4.006743	-4.286758	
H	-3.097621	-3.170309	-3.592749	
H	-3.072871	-4.941016	-3.734038	
H	-2.067507	-3.943481	-4.904807	
H	-3.853889	-3.978796	-4.970956	
C	1.194083	-4.1498	-4.94973	
N	1.106851	-2.952055	-4.561753	
7

C	-2.996003	-4.007958	-4.292102	
H	-3.075263	-3.164264	-3.607087	
H	-3.065955	-4.94104	-3.735131	
H	-2.076161	-3.939257	-4.911829	
H	-3.844447	-3.972068	-4.980247	
C	1.144488	-4.169607	-4.957259	
N	1.111588	-2.933436	-4.538098	
7

C	-2.985358	-4.009028	-4.298218	
H	-3.050912	-3.15837	-3.621645	
H	-3.05542	-4.941257	-3.736406	
H	-2.090694	-3.936894	-4.910384	
H	-3.834709	-3.964856	-4.988405	
C	1.094546	-4.176191	-4.960302	
N	1.116618	-2.926157	-4.51829	
7

C	-2.97506	-4.009985	-4.304956	
H	-3.024421	-3.152619	-3.63624	
H	-3.040946	-4.940778	-3.73854	
H	-2.102233	-3.93673	-4.9069	
H	-3.823962	-3.957372	-4.994438	
C	1.044797	-4.168405	-4.961753	
N	1.121614	-2.930997	-4.502139	
7

C	-2.966143	-4.010776	-4.311591	
H	-2.99754	-3.147506	-3.649705	
H	-3.023444	-4.939033	-3.741847	
H	-2.099957	-3.939329	-4.912886	
H	-3.813027	-3.950356	-4.997647	
C	0.9993345	-4.146659	-4.965216	
N	1.125877	-2.947769	-4.490423	
7

C	-2.958699	-4.011304	-4.317854	
H	-2.971363	-3.143347	-3.661377	
H	-3.00394	-4.936224	-3.746139	
H	-2.081017	-3.944885	-4.930279	
H	-3.8034	-3.944297	-4.998502	
C	0.9583917	-4.113626	-4.970218	
N	1.128987	-2.974746	-4.483022	
7

C	-2.951913	-4.011424	-4.324054	
H	-2.946344	-3.140296	-3.670993	
H	-2.983335	-4.933173	-3.750859	
H	-2.052171	-3.953953	-4.954104	
H	-3.796811	-3.939471	-4.998071	
C	0.921683	-4.073121	-4.977109	
N	1.130904	-3.009146	-4.47907	
7

C	-2.888577	-4.004068	-4.376426	
H	-2.820894	-3.147998	-3.704622	
H	-2.88458	-4.919985	-3.776479	
H	-1.976023	-4.071774	-4.964748	
H	-3.801682	-3.942249	-4.982059	
C	0.6603459	-3.992178	-4.984849	
N	1.178139	-3.117225	-4.399152	
7

C	-2.876522	-4.003213	-4.385149	
H	-2.803886	-3.15139	-3.710814	
H	-2.879155	-4.913363	-3.781379	
H	-1.956107	-4.095666	-4.977859	
H	-3.793279	-3.946371	-4.975959	
C	0.6032836	-4.00828	-4.986827	
N	1.192032	-3.117275	-4.37652	
7

C	-2.864068	-4.002939	-4.393402	
H	-2.78657	-3.153571	-3.71846	
H	-2.877493	-4.906025	-3.785583	
H	-1.927501	-4.119626	-4.995893	
H	-3.781114	-3.950326	-4.971677	
C	0.5462656	-4.021656	-4.995937	
N	1.202568	-3.122427	-4.357399	
7

C	-2.786241	-4.012577	-4.425796	
H	-2.683955	-3.130715	-3.787432	
H	-2.901171	-4.893188	-3.777496	
H	-1.74086	-4.211987	-4.976146	
H	-3.698964	-3.946988	-4.979984	
C	0.3451091	-4.013613	-4.991427	
N	1.155108	-3.268394	-4.353868	
7

C	-2.766956	-4.016849	-4.429737	
H	-2.65805	-3.122238	-3.808655	
H	-2.902925	-4.891924	-3.774733	
H	-1.704823	-4.224672	-4.96873	
H	-3.682089	-3.940257	-4.987721	
C	0.3298935	-4.005422	-4.997843	
N	1.125781	-3.317263	-4.370228	
7

C	-2.747066	-4.021695	-4.432439	
H	-2.630073	-3.114437	-3.831336	
H	-2.900266	-4.889089	-3.773538	
H	-1.671011	-4.235644	-4.975614	
H	-3.665359	-3.932229	-4.993256	
C	0.3222742	-4.00027	-4.994875	
N	1.093735	-3.367499	-4.38926	
7

C	1.739938	2.021024	1.793183	
H	0.6781539	1.910512	1.855451	
H	2.084171	2.439869	2.757115	
H	2.183033	1.026214	1.642516	
H	1.969346	2.969546	1.165532	
C	1.667361	3.983132	-2.413677	
N	1.039542	3.126934	-1.912702	
7

C	-1.136586	-3.892398	-3.631036	
H	-0.8460969	-2.952103	-3.082294	
H	-0.2038215	-4.374359	-3.949468	
H	-1.901747	-3.551652	-4.41463	
H	-1.826992	-4.57603	-2.848382	
C	2.29663	-4.443458	-4.831946	
N	2.024715	-3.332011	-4.541366	
7

C	-1.17828	-3.890513	-3.620527	
H	-0.8611991	-2.932194	-3.141683	
H	-0.2407341	-4.354745	-4.015753	
H	-1.878647	-3.555155	-4.377619	
H	-1.715306	-4.599629	-2.81447	
C	2.28995	-4.44113	-4.835255	
N	2.033529	-3.319663	-4.541846	
7

C	-1.219938	-3.889096	-3.607534	
H	-0.8789266	-2.923422	-3.200176	
H	-0.2904843	-4.333435	-4.081094	
H	-1.85893	-3.56568	-4.346731	
H	-1.586579	-4.601651	-2.805861	
C	2.282501	-4.435452	-4.837686	
N	2.043002	-3.310193	-4.543079	
7

C	-1.257169	-3.88848	-3.592784	
H	-0.8968668	-2.921761	-3.250726	
H	-0.3539037	-4.308547	-4.139473	
H	-1.869644	-3.577629	-4.339397	
H	-1.45993	-4.590422	-2.811527	
C	2.274506	-4.426579	-4.839187	
N	2.052862	-3.303801	-4.545031	
7

C	-1.454387	-3.857458	-3.55901	
H	-1.084121	-2.850649	-3.283984	
H	-0.8644471	-4.129717	-4.487634	
H	-2.501862	-3.938794	-3.954909	
H	-1.1306	-4.535347	-2.74026	
C	2.208013	-4.366491	-4.85429	
N	2.133007	-3.24198	-4.5581	
7

C	-1.474383	-3.853793	-3.564462	
H	-1.144219	-2.852322	-3.273948	
H	-0.914959	-4.114264	-4.503894	
H	-2.532065	-3.993172	-3.800332	
H	-1.17162	-4.486979	-2.784189	
C	2.200221	-4.36573	-4.858028	
N	2.14253	-3.228135	-4.558203	
7

C	-1.493526	-3.849535	-3.572293	
H	-1.212139	-2.852957	-3.26624	
H	-0.9700454	-4.097447	-4.507601	
H	-2.558332	-4.038123	-3.651465	
H	-1.207936	-4.454913	-2.813812	
C	2.192382	-4.362712	-4.861136	
N	2.152064	-3.216355	-4.558815	
7

C	-1.513093	-3.844003	-3.582442	
H	-1.284636	-2.847371	-3.26047	
H	-1.027976	-4.081115	-4.506628	
H	-2.584244	-4.07202	-3.51932	
H	-1.225882	-4.452246	-2.812889	
C	2.184663	-4.356371	-4.863817	
N	2.161609	-3.207527	-4.560172	
7

C	-1.534523	-3.837722	-3.592838	
H	-1.358961	-2.832681	-3.256417	
H	-1.085312	-4.067897	-4.513079	
H	-2.607245	-4.093587	-3.412073	
H	-1.220961	-4.473595	-2.787272	
C	2.178354	-4.346148	-4.869634	
N	2.171218	-3.201784	-4.562345	
7

C	-1.560215	-3.831466	-3.600915	
H	-1.438067	-2.808804	-3.254796	
H	-1.143478	-4.059012	-4.538199	
H	-2.624416	-4.103395	-3.330335	
H	-1.195901	-4.50291	-2.756235	
C	2.173337	-4.331452	-4.88021	
N	2.181624	-3.1984	-4.56545	
7

C	-1.588031	-3.82664	-3.603755	
H	-1.513099	-2.782666	-3.257929	
H	-1.199251	-4.054782	-4.58055	
H	-2.632318	-4.101668	-3.28671	
H	-1.159126	-4.521004	-2.742061	
C	2.170033	-4.314554	-4.895345	
N	2.192021	-3.19678	-4.569044	
7

C	-1.677278	-3.820212	-3.586555	
H	-1.701256	-2.740017	-3.313625	
H	-1.407567	-4.035103	-4.690744	
H	-2.658876	-4.073503	-3.36452	
H	-1.037094	-4.442245	-2.866628	
C	2.163295	-4.26585	-4.977063	
N	2.225188	-3.190285	-4.579958	
7

C	-1.701846	-3.819013	-3.579084	
H	-1.740551	-2.743976	-3.344376	
H	-1.486677	-4.018045	-4.684588	
H	-2.700558	-4.078975	-3.431629	
H	-1.010533	-4.381508	-2.945883	
C	2.157415	-4.255323	-4.988094	
N	2.235839	-3.185703	-4.582531	
7

C	-1.725189	-3.81699	-3.573587	
H	-1.769625	-2.751741	-3.378302	
H	-1.566271	-3.994311	-4.657657	
H	-2.758893	-4.097705	-3.509072	
H	-0.9859201	-4.318425	-3.025563	
C	2.145419	-4.248445	-4.956353	
N	2.246622	-3.179397	-4.584459	
7

C	1.731309	2.044372	1.749064	
H	0.6794388	1.913499	1.832616	
H	2.048688	2.409621	2.700857	
H	2.151474	1.035742	1.581968	
H	1.967232	3.006415	1.142934	
C	1.67096	3.974444	-2.418414	
N	1.046092	3.139922	-1.907301	
7

C	1.118359	1.205234	-2.190538	
H	0.9681792	2.154929	-1.758933	
H	1.852515	1.32166	-3.01237	
H	1.493096	0.6696938	-1.383422	
H	0.2476313	0.8677299	-2.719182	
C	1.046804	-2.498943	3.008561	
N	0.635103	-1.658647	2.344385	
7

C	1.124802	1.184701	-2.194113	
H	0.9986266	2.144802	-1.751763	
H	1.808017	1.314995	-3.064053	
H	1.566054	0.6940942	-1.356917	
H	0.2434928	0.8531675	-2.713621	
C	1.071051	-2.498858	3.000951	
N	0.6170156	-1.646619	2.344618	
7

C	1.132844	1.164416	-2.199773	
H	1.02241	2.149418	-1.746277	
H	1.763262	1.305861	-3.105282	
H	1.644085	0.6990474	-1.327804	
H	0.2291858	0.8293601	-2.697543	
C	1.096197	-2.498048	2.992389	
N	0.5983022	-1.634563	2.345331	
7

C	1.142396	1.145707	-2.205833	
H	1.037928	2.159121	-1.748061	
H	1.723456	1.294277	-3.133368	
H	1.714242	0.6906888	-1.313994	
H	0.2080794	0.7974347	-2.667258	
C	1.119789	-2.494562	2.981827	
N	0.5809215	-1.624802	2.347759	
7

C	1.154567	1.12655	-2.211838	
H	1.047366	2.164546	-1.761668	
H	1.686938	1.278441	-3.154145	
H	1.777356	0.6731672	-1.325862	
H	0.1833008	0.7546781	-2.614864	
C	1.143768	-2.486402	2.966837	
N	0.5635727	-1.617421	2.353138	
7

C	1.167449	1.109295	-2.216339	
H	1.050425	2.157387	-1.787118	
H	1.660588	1.259844	-3.169737	
H	1.821466	0.6518922	-1.367168	
H	0.1652613	0.7083647	-2.54429	
C	1.164681	-2.473653	2.948608	
N	0.5488524	-1.613975	2.361295	
7

C	1.180459	1.093588	-2.219285	
H	1.048527	2.135419	-1.822722	
H	1.644492	1.237819	-3.185003	
H	1.847412	0.6281979	-1.435364	
H	0.1604099	0.6607176	-2.456298	
C	1.182669	-2.456318	2.927131	
N	0.5366787	-1.614291	2.372147	
7

C	1.192825	1.079087	-2.221354	
H	1.043224	2.102468	-1.86369	
H	1.636333	1.21154	-3.202407	
H	1.861376	0.6010103	-1.520195	
H	0.1725271	0.6139104	-2.355387	
C	1.198287	-2.435402	2.903172	
N	0.5265759	-1.617509	2.38504	
7

C	1.203592	1.065544	-2.2239	
H	1.036004	2.06802	-1.902885	
H	1.631768	1.18023	-3.221631	
H	1.875584	0.5663967	-1.604805	
H	0.2017828	0.569643	-2.248975	
C	1.212533	-2.412794	2.878133	
N	0.5176488	-1.622176	2.398858	
7

C	1.211893	1.052895	-2.228189	
H	1.028544	2.044704	-1.932223	
H	1.625421	1.144342	-3.240601	
H	1.903547	0.5213568	-1.671238	
H	0.2430916	0.5292957	-2.147737	
C	1.22662	-2.391342	2.854183	
N	0.5087424	-1.626369	2.412011	
7

C	1.240169	0.9937137	-2.256951	
H	1.044646	2.061192	-1.939867	
H	1.499687	0.9498215	-3.319226	
H	2.118966	0.3702228	-1.804402	
H	0.4222625	0.3740238	-1.845839	
C	1.309979	-2.331348	2.772123	
N	0.4500482	-1.620598	2.452631	
7

C	1.250416	0.9751964	-2.262137	
H	1.073855	2.048085	-1.932097	
H	1.434581	0.8932096	-3.342283	
H	2.156711	0.3877794	-1.835226	
H	0.4584298	0.3405399	-1.80495	
C	1.335448	-2.31965	2.752931	
N	0.4315006	-1.615898	2.461428	
7

C	1.262008	0.9554101	-2.26564	
H	1.113012	2.016953	-1.928276	
H	1.358032	0.8374786	-3.362908	
H	2.181929	0.4303628	-1.869823	
H	0.4925864	0.3142962	-1.778829	
C	1.358685	-2.30623	2.733035	
N	0.4148672	-1.612674	2.47083	
7

C	1.274354	0.9344995	-2.268071	
H	1.158456	1.972453	-1.929697	
H	1.27333	0.7851794	-3.375962	
H	2.200525	0.4900203	-1.90681	
H	0.5253497	0.2960468	-1.765028	
C	1.377791	-2.289957	2.712152	
N	0.4017568	-1.61198	2.481122	
7

C	1.286559	0.9124932	-2.270519	
H	1.205256	1.924855	-1.935673	
H	1.184859	0.7386711	-3.376615	
H	2.22404	0.5553658	-1.943474	
H	0.5563772	0.2842073	-1.758816	
C	1.391725	-2.270263	2.690192	
N	0.3930633	-1.614304	2.492382	
7

C	1.297783	0.8892489	-2.274097	
H	1.248014	1.887193	-1.944164	
H	1.097631	0.699673	-3.362637	
H	2.264816	0.6153172	-1.977917	
H	0.5846314	0.275067	-1.753471	
C	1.400443	-2.247141	2.667196	
N	0.3888424	-1.619566	2.504528	
7

C	1.307853	0.864959	-2.279253	
H	1.281356	1.869142	-1.953573	
H	1.01748	0.6695335	-3.335814	
H	2.324929	0.6625979	-2.011526	
H	0.6087742	0.2642395	-1.741735	
C	1.404706	-2.221404	2.643609	
N	0.3884242	-1.62715	2.517222	
7

C	1.317737	0.8400405	-2.285531	
H	1.301894	1.869592	-1.964682	
H	0.9477682	0.6479561	-3.301688	
H	2.393036	0.6951129	-2.049402	
H	0.6295183	0.248603	-1.717956	
C	1.40627	-2.194078	2.619673	
N	0.3903195	-1.636097	2.530215	
7

C	1.368752	0.7508006	-2.301939	
H	1.253479	1.848494	-2.060582	
H	0.781878	0.6093177	-3.218734	
H	2.488758	0.6718973	-2.298704	
H	0.778892	0.1731483	-1.527489	
C	1.432238	-2.092505	2.522767	
N	0.381183	-1.664433	2.582762	
7

C	1.382216	0.7327889	-2.302134	
H	1.222535	1.809139	-2.0936	
H	0.7685955	0.5991431	-3.214496	
H	2.459582	0.631821	-2.380482	
H	0.8548748	0.1655379	-1.482838	
C	1.448504	-2.070859	2.497842	
N	0.3705871	-1.667997	2.596338	
7

C	1.393262	0.7164103	-2.301694	
H	1.193183	1.764755	-2.123212	
H	0.7671955	0.5834357	-3.208492	
H	2.430585	0.5830804	-2.463546	
H	0.9433541	0.1627959	-1.448511	
C	1.465217	-2.04985	2.473273	
N	0.359552	-1.671259	2.609736	
7

C	1.401178	0.7010322	-2.301319	
H	1.168918	1.726685	-2.146002	
H	0.7749201	0.559055	-3.197716	
H	2.414882	0.528659	-2.547093	
H	1.03896	0.1612736	-1.423424	
C	1.47958	-2.028495	2.449382	
N	0.3504777	-1.675064	2.62268	
7

C	1.406782	0.6858068	-2.301672	
H	1.151767	1.704021	-2.160513	
H	0.7861001	0.522863	-3.18187	
H	2.413754	0.472329	-2.63072	
H	1.136957	0.1562458	-1.402924	
C	1.489614	-2.005794	2.426163	
N	0.3451152	-1.680023	2.635047	
7

C	1.411731	0.6702881	-2.303348	
H	1.14389	1.69928	-2.167067	
H	0.7933536	0.4722597	-3.162616	
H	2.418419	0.4199645	-2.710625	
H	1.233329	0.1439877	-1.382445	
C	1.494035	-1.981226	2.403742	
N	0.3446002	-1.686427	2.64665	
7

C	1.417458	0.6546928	-2.306571	
H	1.147804	1.706429	-2.167758	
H	0.7896388	0.4070055	-3.141898	
H	2.418372	0.3787067	-2.779947	
H	1.324306	0.1243012	-1.361441	
C	1.492435	-1.955112	2.382591	
N	0.3492488	-1.694156	2.657162	
7

C	1.424774	0.6389923	-2.311235	
H	1.165184	1.714779	-2.165779	
H	0.7713999	0.3280712	-3.118392	
H	2.407541	0.3529099	-2.83478	
H	1.409503	0.1003971	-1.343771	
C	1.485487	-1.927563	2.362543	
N	0.3585106	-1.702996	2.666667	
7

C	1.433683	0.6230495	-2.317091	
H	1.19565	1.71452	-2.164269	
H	0.7403407	0.2400144	-3.087141	
H	2.385281	0.3443595	-2.87392	
H	1.488185	0.0773766	-1.335405	
C	1.474943	-1.899076	2.343276	
N	0.3708826	-1.712521	2.67544	
7

C	1.443572	0.6065864	-2.323876	
H	1.236499	1.700039	-2.165517	
H	0.7024505	0.1505216	-3.041919	
H	2.355731	0.3521866	-2.899447	
H	1.558917	0.0598357	-1.340786	
C	1.463408	-1.870407	2.324292	
N	0.3841036	-1.722202	2.683971	
7

C	1.453359	0.589355	-2.331155	
H	1.282603	1.671663	-2.170409	
H	0.6657318	0.06892648	-2.979311	
H	2.327583	0.3723458	-2.917584	
H	1.620334	0.05028499	-1.36029	
C	1.453849	-1.842448	2.305014	
N	0.3955756	-1.731523	2.692882	
7

C	1.462217	0.5705462	-2.338622	
H	1.329149	1.634485	-2.178424	
H	0.6358934	0.0005397943	-2.898215	
H	2.310434	0.3994701	-2.938179	
H	1.674499	0.04815783	-1.390462	
C	1.448212	-1.814892	2.284289	
N	0.4036838	-1.740498	2.703035	
7

C	1.469527	0.549826	-2.345998	
H	1.370023	1.598189	-2.187608	
H	0.6167788	-0.05005044	-2.803148	
H	2.310627	0.4277937	-2.969413	
H	1.723853	0.05059468	-1.423516	
C	1.447188	-1.787814	2.26184	
N	0.4078184	-1.749143	2.714708	
7

C	1.475639	0.5270659	-2.353532	
H	1.400225	1.571964	-2.195529	
H	0.6082926	-0.08202971	-2.701281	
H	2.32468	0.453114	-3.013126	
H	1.772797	0.05332846	-1.449895	
C	1.449752	-1.761028	2.237963	
N	0.408859	-1.757618	2.727647	
7

C	1.481839	0.5027114	-2.361705	
H	1.416898	1.558714	-2.200513	
H	0.6057839	-0.0989044	-2.600722	
H	2.340675	0.4723174	-3.064397	
H	1.826289	0.05309906	-1.462747	
C	1.45364	-1.734261	2.213476	
N	0.4087634	-1.766076	2.741108	
7

C	1.489676	0.4780739	-2.370447	
H	1.419125	1.553487	-2.202214	
H	0.6016895	-0.1068728	-2.509589	
H	2.345735	0.4822609	-3.115739	
H	1.886521	0.04995976	-1.462288	
C	1.456221	-1.707671	2.189766	
N	0.4097741	-1.77445	2.753938	
7

C	1.500385	0.454267	-2.379153	
H	1.408088	1.547096	-2.20141	
H	0.590049	-0.1119504	-2.431998	
H	2.331667	0.4804681	-3.162117	
H	1.952475	0.04693151	-1.456183	
C	1.45531	-1.681313	2.167949	
N	0.4137794	-1.782625	2.765146	
7

C	1.514476	0.4315374	-2.387058	
H	1.386121	1.531268	-2.199254	
H	0.5712628	-0.1165924	-2.368128	
H	2.295373	0.4652116	-3.202502	
H	2.021606	0.04744082	-1.454588	
C	1.449411	-1.654909	2.148541	
N	0.4221276	-1.790546	2.774134	
7

C	1.531087	0.4099805	-2.393195	
H	1.357133	1.502116	-2.196982	
H	0.5530528	-0.119807	-2.318078	
H	2.239888	0.4364407	-3.238941	
H	2.089526	0.05329526	-1.465617	
C	1.438086	-1.62868	2.13198	
N	0.4351937	-1.798024	2.780529	
7

C	1.548451	0.3897994	-2.396533	
H	1.325878	1.460842	-2.195714	
H	0.5454426	-0.120273	-2.282901	
H	2.172816	0.3956303	-3.276333	
H	2.151739	0.0641675	-1.493184	
C	1.421938	-1.60326	2.118532	
N	0.452395	-1.804808	2.784256	
7

C	1.565034	0.370766	-2.396604	
H	1.296401	1.413078	-2.196214	
H	0.5549464	-0.1189311	-2.261789	
H	2.101858	0.3450218	-3.321062	
H	2.207229	0.07778534	-1.536085	
C	1.402414	-1.578709	2.107543	
N	0.4724713	-1.81094	2.785922	
7

C	1.580103	0.3524489	-2.393937	
H	1.271274	1.366984	-2.198856	
H	0.5826263	-0.1194618	-2.251996	
H	2.030182	0.286805	-3.375037	
H	2.25895	0.09067802	-1.588895	
C	1.381378	-1.554521	2.09764	
N	0.4938437	-1.816762	2.786656	
7

C	1.72357	2.069239	1.70524	
H	0.6666456	1.917184	1.807811	
H	2.017739	2.376166	2.660424	
H	2.124805	1.057319	1.51446	
H	1.960425	3.023256	1.117366	
C	1.674453	3.965824	-2.423041	
N	1.052582	3.152764	-1.902011	
7

C	1.593349	0.3348923	-2.39027	
H	1.252357	1.331709	-2.203765	
H	0.6230041	-0.1278826	-2.248984	
H	1.958219	0.2250469	-3.430524	
H	2.31189	0.09873867	-1.642268	
C	1.361297	-1.530388	2.087284	
N	0.5143582	-1.82271	2.787869	
7

C	1.626665	0.2873081	-2.390268	
H	1.244567	1.309278	-2.23714	
H	0.7286096	-0.263719	-2.217882	
H	1.741656	0.05822225	-3.505023	
H	2.510659	0.07832034	-1.765129	
C	1.318878	-1.451845	2.041367	
N	0.5605398	-1.846173	2.804422	
7

C	1.626665	0.2873081	-2.390268	
H	1.244567	1.309278	-2.23714	
H	0.7286096	-0.263719	-2.217882	
H	1.741656	0.05822225	-3.505023	
H	2.510659	0.07832034	-1.765129	
C	1.318878	-1.451845	2.041367	
N	0.5605398	-1.846173	2.804422	
7

C	1.636701	0.2728672	-2.395102	
H	1.261537	1.311199	-2.255733	
H	0.7510999	-0.3452061	-2.183834	
H	1.679347	0.0189552	-3.488445	
H	2.574165	0.06267096	-1.80662	
C	1.309114	-1.423407	2.021715	
N	0.572207	-1.855814	2.813607	
7

C	1.645624	0.2583077	-2.401008	
H	1.287567	1.30643	-2.276723	
H	0.7808281	-0.428309	-2.136511	
H	1.628902	-0.01047294	-3.46092	
H	2.622455	0.04752356	-1.857022	
C	1.298983	-1.395273	2.002541	
N	0.5841823	-1.865224	2.822399	
7

C	1.65308	0.2428573	-2.406708	
H	1.320151	1.292382	-2.298035	
H	0.826193	-0.5006624	-2.078593	
H	1.591925	-0.03244993	-3.435669	
H	2.652241	0.03469243	-1.917734	
C	1.286916	-1.3685	1.985666	
N	0.5978106	-1.873498	2.829234	
7

C	1.65903	0.2258551	-2.411162	
H	1.355769	1.270596	-2.317135	
H	0.8903579	-0.5534504	-2.013736	
H	1.567378	-0.05068965	-3.425584	
H	2.665696	0.02478929	-1.987279	
C	1.271898	-1.343899	1.972415	
N	0.6139696	-1.87991	2.832962	
7

C	1.663666	0.2064483	-2.414184	
H	1.391113	1.245456	-2.331735	
H	0.9728679	-0.5830509	-1.944533	
H	1.552107	-0.06840351	-3.436248	
H	2.6706	0.0172047	-2.063297	
C	1.253259	-1.321529	1.963259	
N	0.6332979	-1.88412	2.833027	
7

C	1.667001	0.1847172	-2.416475	
H	1.421938	1.223266	-2.339332	
H	1.066184	-0.5894083	-1.875235	
H	1.543078	-0.08601779	-3.462165	
H	2.678473	0.01102529	-2.139863	
C	1.231586	-1.301908	1.958356	
N	0.6552279	-1.885974	2.829447	
7

C	1.669391	0.1612189	-2.419343	
H	1.445865	1.207489	-2.338723	
H	1.160027	-0.5788952	-1.807129	
H	1.536853	-0.10289	-3.490677	
H	2.699201	0.005638963	-2.213145	
C	1.207931	-1.284783	1.956888	
N	0.678817	-1.885868	2.823014	
7

C	1.671825	0.1368543	-2.423995	
H	1.462642	1.196684	-2.32992	
H	1.24499	-0.561372	-1.737774	
H	1.529769	-0.1190504	-3.510088	
H	2.734333	0.001648433	-2.282886	
C	1.183391	-1.269178	1.957337	
N	0.7031247	-1.884639	2.815032	
7

C	1.675698	0.1124315	-2.431015	
H	1.473663	1.185627	-2.314188	
H	1.316604	-0.5449519	-1.664231	
H	1.518054	-0.1358968	-3.514072	
H	2.776055	0.0003882473	-2.350944	
C	1.158871	-1.253517	1.957719	
N	0.7274151	-1.883459	2.807105	
7

C	1.720994	0.02348796	-2.463182	
H	1.485831	1.067141	-2.23499	
H	1.506664	-0.4864064	-1.460782	
H	1.360281	-0.2596117	-3.431574	
H	2.82912	0.02469817	-2.599046	
C	1.072435	-1.170095	1.93251	
N	0.8146378	-1.896354	2.798206	
7

C	1.73951	0.003559415	-2.466592	
H	1.482507	1.026411	-2.224167	
H	1.545337	-0.4706298	-1.467432	
H	1.28549	-0.3131137	-3.40938	
H	2.809551	0.03136603	-2.652159	
C	1.052181	-1.145604	1.921904	
N	0.8353296	-1.902481	2.79955	
7

C	1.758469	-0.01543572	-2.468658	
H	1.475501	0.9924582	-2.220217	
H	1.58282	-0.4621685	-1.493125	
H	1.20528	-0.3708476	-3.378981	
H	2.793258	0.03497036	-2.702803	
C	1.031699	-1.122988	1.913271	
N	0.8561829	-1.907156	2.79928	
7

C	1.776327	-0.03376768	-2.470989	
H	1.464592	0.9683751	-2.223493	
H	1.62	-0.4681301	-1.524076	
H	1.128663	-0.4282161	-3.331625	
H	2.790677	0.03485122	-2.754702	
C	1.010548	-1.103412	1.908063	
N	0.8776101	-1.909225	2.79607	
7

C	1.792079	-0.05131428	-2.47507	
H	1.450801	0.9532406	-2.234153	
H	1.657944	-0.4950876	-1.544179	
H	1.06437	-0.4812942	-3.263579	
H	2.804368	0.03047743	-2.810441	
C	0.9885719	-1.087589	1.907127	
N	0.8997738	-1.907948	2.789126	
7

C	1.805468	-0.06778358	-2.481468	
H	1.436607	0.942691	-2.251601	
H	1.698879	-0.5437883	-1.545053	
H	1.018599	-0.5276247	-3.177871	
H	2.826482	0.02102559	-2.86921	
C	0.9659669	-1.075683	1.91054	
N	0.9225057	-1.903184	2.778384	
7

C	1.816688	-0.08314776	-2.489376	
H	1.425246	0.9315074	-2.274176	
H	1.746123	-0.6062012	-1.532374	
H	0.9936082	-0.5667273	-3.083041	
H	2.844518	0.005519195	-2.927508	
C	0.9431707	-1.067275	1.917622	
N	0.9454021	-1.895421	2.764494	
7

C	1.826216	-0.09764728	-2.497085	
H	1.419653	0.9161144	-2.299017	
H	1.801823	-0.6682735	-1.519883	
H	0.9862444	-0.6006037	-2.991481	
H	2.848118	-0.01641241	-2.981282	
C	0.9207512	-1.061233	1.926864	
N	0.9679201	-1.88588	2.748882	
7

C	1.835038	-0.1120774	-2.503281	
H	1.421372	0.8953605	-2.323616	
H	1.867839	-0.7189977	-1.518382	
H	0.9887453	-0.6344843	-2.912311	
H	2.832623	-0.04515757	-3.029902	
C	0.8983431	-1.055676	1.936594	
N	0.990429	-1.875924	2.732848	
7

C	1.861443	-0.1613277	-2.507473	
H	1.467085	0.8283038	-2.370446	
H	2.119246	-0.7465439	-1.602713	
H	0.9964175	-0.767119	-2.79619	
H	2.701229	-0.1655365	-3.16734	
C	0.8276815	-1.025412	1.953727	
N	1.061084	-1.856924	2.694657	
7

C	1.868593	-0.1809457	-2.50524	
H	1.490237	0.8168918	-2.371723	
H	2.212824	-0.7183778	-1.641376	
H	1.001555	-0.8130366	-2.791815	
H	2.655142	-0.2108761	-3.225123	
C	0.8030618	-1.009922	1.954357	
N	1.085516	-1.855378	2.686361	
7

C	1.874103	-0.2022006	-2.503164	
H	1.515724	0.8112953	-2.366419	
H	2.311587	-0.6832809	-1.668413	
H	1.013993	-0.852574	-2.79382	
H	2.613768	-0.2558366	-3.292864	
C	0.778215	-0.9937011	1.954345	
N	1.110143	-1.854458	2.678616	
7

C	1.878256	-0.2242792	-2.502626	
H	1.543078	0.8073166	-2.3568	
H	2.4142	-0.6479923	-1.678631	
H	1.033707	-0.8835756	-2.79493	
H	2.57347	-0.297292	-3.363417	
C	0.7541871	-0.9789333	1.955369	
N	1.134024	-1.852487	2.670084	
7

C	1.882176	-0.2467663	-2.504144	
H	1.571912	0.799982	-2.345559	
H	2.515805	-0.613566	-1.678081	
H	1.057222	-0.9076455	-2.789362	
H	2.529565	-0.3325556	-3.427666	
C	0.7317644	-0.9672968	1.958776	
N	1.156485	-1.848025	2.65961	
7

C	1.88751	-0.2695352	-2.507413	
H	1.601334	0.7855288	-2.33516	
H	2.608288	-0.5784941	-1.679253	
H	1.078454	-0.9296356	-2.773386	
H	2.479631	-0.360069	-3.478908	
C	0.7112634	-0.9596353	1.965342	
N	1.177298	-1.840154	2.646426	
7

C	1.895886	-0.2927582	-2.512008	
H	1.630032	0.7620519	-2.327294	
H	2.68498	-0.5422989	-1.693001	
H	1.091173	-0.9556521	-2.744057	
H	2.423305	-0.3794865	-3.514583	
C	0.6924276	-0.9560788	1.975469	
N	1.196783	-1.828319	2.629958	
7

C	1.90778	-0.3153315	-2.517364	
H	1.654192	0.7315853	-2.32328	
H	2.73789	-0.5089205	-1.724594	
H	1.091543	-0.988211	-2.700176	
H	2.365728	-0.3902975	-3.534039	
C	0.6757912	-0.9563381	1.988461	
N	1.214382	-1.813212	2.611032	
7

C	1.922867	-0.3373536	-2.523212	
H	1.670762	0.6977725	-2.323092	
H	2.767225	-0.4822655	-1.77418	
H	1.082807	-1.025936	-2.639746	
H	2.311185	-0.3939995	-3.542702	
C	0.6607361	-0.9592679	2.003463	
N	1.230642	-1.79574	2.590343	
7

C	1.939721	-0.3591232	-2.529346	
H	1.677059	0.6653155	-2.325825	
H	2.779521	-0.4665596	-1.836217	
H	1.073854	-1.063231	-2.562572	
H	2.263926	-0.3931074	-3.549678	
C	0.646238	-0.9631655	2.019216	
N	1.246441	-1.777363	2.568971	
7

C	1.980297	-0.4230063	-2.550774	
H	1.632131	0.5942596	-2.338402	
H	2.859076	-0.5102633	-1.987392	
H	1.13226	-1.121649	-2.272222	
H	2.175364	-0.3931835	-3.6232	
C	0.594372	-0.9642395	2.059508	
N	1.300983	-1.73149	2.510909	
7

C	1.98759	-0.4426499	-2.559325	
H	1.606635	0.5719764	-2.340789	
H	2.923368	-0.5498509	-2.01212	
H	1.188214	-1.122412	-2.177509	
H	2.154274	-0.4039627	-3.655466	
C	0.5727991	-0.9594483	2.069628	
N	1.322794	-1.720808	2.494495	
7

C	1.993726	-0.4607166	-2.567766	
H	1.584382	0.54571	-2.341602	
H	2.987108	-0.5927749	-2.037517	
H	1.255088	-1.121463	-2.093096	
H	2.131547	-0.4244489	-3.678884	
C	0.5505095	-0.9537187	2.079071	
N	1.345182	-1.711097	2.478749	
7

C	2.000493	-0.4772654	-2.575646	
H	1.56936	0.5151822	-2.340931	
H	3.036142	-0.6330148	-2.072417	
H	1.325883	-1.125519	-2.020084	
H	2.104849	-0.4564402	-3.689579	
C	0.5289762	-0.9486929	2.088877	
N	1.366922	-1.700783	2.462692	
7

C	2.009058	-0.4928088	-2.582696	
H	1.563941	0.4820572	-2.338912	
H	3.06388	-0.6659917	-2.121369	
H	1.395982	-1.139623	-1.958126	
H	2.072511	-0.5015178	-3.687805	
C	0.509456	-0.9457661	2.099982	
N	1.387005	-1.688356	2.445359	
7

C	2.019483	-0.5075641	-2.588281	
H	1.569062	0.4509889	-2.335714	
H	3.069657	-0.6871789	-2.183165	
H	1.460823	-1.16478	-1.910336	
H	2.034689	-0.5587817	-3.677658	
C	0.4936872	-0.9460064	2.112555	
N	1.403871	-1.673214	2.426765	
7

C	2.031423	-0.5224577	-2.591999	
H	1.584022	0.4258609	-2.331448	
H	3.060997	-0.6950697	-2.255235	
H	1.520558	-1.199062	-1.878757	
H	1.990466	-0.6282411	-3.665146	
C	0.4821892	-0.9498116	2.126818	
N	1.417115	-1.654836	2.406629	
7

C	2.043723	-0.5381378	-2.593794	
H	1.607013	0.4094418	-2.326537	
H	3.053409	-0.6905838	-2.331895	
H	1.575698	-1.238301	-1.864897	
H	1.939392	-0.7081878	-3.654696	
C	0.4748515	-0.9569061	2.14254	
N	1.426833	-1.633457	2.385148	
7

C	2.054722	-0.5548221	-2.594151	
H	1.635802	0.4021373	-2.321953	
H	3.066225	-0.6763968	-2.406871	
H	1.6263	-1.277972	-1.867972	
H	1.882164	-0.7945521	-3.645799	
C	0.4708923	-0.9664106	2.159132	
N	1.433653	-1.610013	2.36292	
7

C	2.063365	-0.5723072	-2.593908	
H	1.667636	0.4013058	-2.319123	
H	3.107996	-0.655463	-2.476909	
H	1.671925	-1.31453	-1.883131	
H	1.821954	-0.8799974	-3.633478	
C	0.4687286	-0.9768329	2.175695	
N	1.438851	-1.586151	2.340912	
7

C	2.078226	-0.6106759	-2.594859	
H	1.734272	0.4001791	-2.323014	
H	3.224612	-0.5995442	-2.614865	
H	1.753806	-1.381147	-1.918669	
H	1.702315	-1.02871	-3.578472	
C	0.4613978	-0.9958148	2.208292	
N	1.451791	-1.54016	2.29742	
7

C	2.098639	-0.6512685	-2.601622	
H	1.789881	0.3728396	-2.340302	
H	3.262908	-0.5481591	-2.750084	
H	1.83144	-1.443943	-1.910845	
H	1.605785	-1.115713	-3.485115	
C	0.4414625	-1.007603	2.239355	
N	1.475451	-1.500735	2.25545	
7

C	2.11237	-0.6726559	-2.607213	
H	1.808778	0.3459574	-2.351148	
H	3.236295	-0.5336502	-2.815607	
H	1.877205	-1.46916	-1.884821	
H	1.566848	-1.134909	-3.435603	
C	0.427591	-1.0118	2.255104	
N	1.490703	-1.482145	2.234104	
7

C	2.127652	-0.6946408	-2.613257	
H	1.818806	0.3136594	-2.36013	
H	3.187636	-0.5305288	-2.878392	
H	1.931396	-1.483006	-1.849578	
H	1.531912	-1.141555	-3.394505	
C	0.4140257	-1.016117	2.270834	
N	1.505692	-1.463452	2.212775	
7

C	2.143213	-0.7174128	-2.618831	